9
Properties=species:S:1:pos:R:3 energy=106.71355947191802 energy_total=44.861841132195 forces="_JSON [[-146.28551991199998, 65.597395462, 72.86604439000001], [-38.01762547599998, -8.477336421000004, 19.897899974000005], [-27.190323820000003, 42.566422168, 21.28377804899999], [30.82209235900001, -187.66537125600001, -84.41963910999999], [1.4171551000000022, -12.841294956000013, -5.390215502], [2.659659732999984, -19.567434776999995, -6.9187328269999995], [152.274219187, 104.096125086, -19.250583436], [8.540142812999989, 6.366370005999997, -0.24436994900000286], [15.780200011999995, 9.925124691, 2.175818410000005]]" forces_total="_JSON [[-371.665940118, 172.993119342, 122.068670412], [155.970829403, 67.028304226, 81.828819257], [4.201641507, -140.334942359, -89.849767256], [-74.480775036, 45.507361716, -121.982755136], [-107.061678805, -204.915898115, 12.37406343], [216.441361033, -60.665564591, 12.880104267], [-66.321567475, 7.790624491, -111.283523073], [185.513990625, 56.786794592, -117.784386251], [57.402138863, 55.8102007, 211.748774349]]" pbc="F F F"
O        2.74100000       2.67300000       2.68600000
H        2.65400000       2.64200000       2.66000000
H        2.72400000       2.75400000       2.73500000
O        2.67200000       2.91100000       2.80800000
H        2.71600000       2.99500000       2.80000000
H        2.57900000       2.93200000       2.79900000
O        2.48500000       2.54800000       2.72300000
H        2.40600000       2.52500000       2.77200000
H        2.46400000       2.52700000       2.63200000
9
Properties=species:S:1:pos:R:3 energy=88.96668345402401 energy_total=27.45072898333 forces="_JSON [[-60.263518406, -78.53691218300001, -106.434349785], [-2.680070317000002, -28.350637952, -14.639961743], [-18.491363730000003, -6.768023244999995, -36.599292676000005], [57.006582038999994, -46.75479926899999, 139.592843246], [11.778207594999998, -7.528517465999997, 16.02174215800001], [4.48078224, -3.7467107139999882, 9.394609048999996], [5.514104344000003, 140.391596542, -5.113030248000001], [-0.13149874900000214, 16.203904438000002, -0.5488405950000015], [2.786774984999994, 15.090099849000001, -1.6737194009999996]]" forces_total="_JSON [[-245.078820661, -158.4007917, -262.560824809], [109.386984313, 160.733041139, -31.886687841], [54.256883895, -115.987822819, 136.773908446], [-146.433571366, 108.70968994, 137.329903012], [201.188304725, 28.100622082, -86.795525297], [18.510838515, -194.840339471, 114.474816738], [-155.15601058, 76.142528568, -195.017659595], [-55.536947657, 56.939402, 209.831460991], [218.862338817, 38.60367026, -22.14939164]]" pbc="F F F"
O        2.72300000       2.71500000       2.73400000
H        2.67300000       2.63400000       2.73900000
H        2.68900000       2.76100000       2.65700000
O        2.60600000       2.77600000       2.46100000
H        2.52200000       2.76300000       2.50500000
H        2.59700000       2.86000000       2.41600000
O        2.68500000       2.40500000       2.72100000
H        2.70600000       2.38700000       2.63000000
H        2.59000000       2.39400000       2.72700000
9
Properties=species:S:1:pos:R:3 energy=108.686638191084 energy_total=47.373871744817 forces="_JSON [[137.42833249100002, 37.21408953999999, 7.8782484169999805], [22.276466476999985, -9.267977612000003, -20.720472106000003], [28.16745849, 26.141351301000007, 31.682212314999987], [-45.439212759000014, -105.939662209, -165.84996118], [-5.768546814000018, -7.727888769000003, -18.336850641999987], [-2.1499117700000028, -6.088758638000002, -10.305596451999989], [-105.09189618899998, 49.328194847000006, 148.525642599], [-5.745644351999999, 2.9310653419999966, 8.091326254000009], [-23.677045574999994, 13.409586198, 19.035450795000003]]" forces_total="_JSON [[326.409458029, 160.679770422, 131.814784582], [-178.039497785, -49.752385232, 58.514708625], [39.502297214, -56.839921962, -171.489504581], [140.013125246, -33.495649477, -4.129003399], [-162.502204051, 120.637636474, -99.052885134], [-30.868592538, -206.898296613, -91.310519741], [140.857591565, 62.215345818, 227.141379935], [-176.847474065, -60.430667063, 131.220045609], [-98.524703616, 63.884167632, -182.709005897]]" pbc="F F F"
O        2.65500000       2.67900000       2.67000000
H        2.74300000       2.69800000       2.63800000
H        2.65300000       2.71600000       2.75800000
O        2.72600000       2.82100000       2.89500000
H        2.79600000       2.76700000       2.93200000
H        2.74100000       2.90800000       2.93200000
O        2.83000000       2.62100000       2.46800000
H        2.90600000       2.64800000       2.41700000
H        2.86500000       2.60000000       2.55400000
9
Properties=species:S:1:pos:R:3 energy=93.037746161526 energy_total=31.615840827386 forces="_JSON [[143.32256321100002, -0.3438973480000005, -62.769609910000014], [21.835469577999987, -12.50389209299999, 0.0015957640000010542], [47.07866201900001, 12.926505294999998, -31.431830280000014], [-124.857406504, -88.88171959499999, 140.863267368], [-9.067968799999996, -6.570914188999993, 14.224966303999992], [-8.200165194000002, -7.950594009000014, 10.135497311000009], [-56.74123568499999, 83.028070519, -53.643198287999994], [-4.6017705139999805, 9.966101218999995, -6.045857549000004], [-8.768148109999998, 10.330340200999984, -11.334830720000014]]" forces_total="_JSON [[391.837100221, -13.739184399, -133.490567585], [-134.278603301, 116.018374389, -90.855968756], [-45.321802112, -102.200474136, 130.146691915], [-118.567165099, -10.634290126, -102.658598816], [-39.234475047, 122.279344771, 188.144087196], [15.676099648, -215.048282438, 79.738242603], [-222.249478123, 170.087046892, 119.990357877], [180.907151738, 107.107719776, -60.122009347], [-28.768827924, -173.870254729, -130.892235088]]" pbc="F F F"
O        2.66300000       2.70000000       2.71400000
H        2.73200000       2.64600000       2.75100000
H        2.70600000       2.74900000       2.64400000
O        2.84000000       2.80600000       2.53700000
H        2.85300000       2.75200000       2.45900000
H        2.83000000       2.89500000       2.50400000
O        2.87100000       2.46100000       2.84800000
H        2.78800000       2.42000000       2.87400000
H        2.87700000       2.54000000       2.90100000
9
Properties=species:S:1:pos:R:3 energy=81.22888347109101 energy_total=19.293795398168 forces="_JSON [[90.915024166, 75.84447402199999, -25.100771066], [28.503726873000005, 29.202159260000002, -27.985942797999996], [11.33717909699999, 7.265657119999998, 10.459472058000017], [-73.82161639899999, -99.01110957399999, 130.788949679], [-8.440394030000007, -10.650301189999993, 11.542007052999992], [-10.615142025000011, -7.692967882000005, 15.207106089999996], [-28.92806773799998, 2.248940371, -93.228506324], [-8.777342785000002, 1.6372267610000009, -17.02747985800002], [-0.1733671639999841, 1.1559211140000016, -4.65483483700001]]" forces_total="_JSON [[321.646865592, 186.77418016, -29.410379148], [-55.895422794, -92.307697161, 135.277869746], [-134.995512662, 17.845807402, -148.494732404], [170.030546498, -127.165745229, 200.750543622], [-127.649724906, -151.057427843, -108.901696122], [-135.257974047, 160.868794426, 65.689215322], [224.914704362, 1.510818098, -130.098389349], [-113.140681621, 65.168833291, 165.358611425], [-149.652800429, -61.637563143, -150.171043094]]" pbc="F F F"
O        2.66400000       2.67300000       2.69800000
H        2.70300000       2.72600000       2.62900000
H        2.73100000       2.67000000       2.76700000
O        2.79400000       2.83800000       2.50100000
H        2.84800000       2.89700000       2.55300000
H        2.85200000       2.76400000       2.48000000
O        2.79900000       2.68600000       3.03200000
H        2.84700000       2.65900000       2.95400000
H        2.86700000       2.71300000       3.09400000
9
Properties=species:S:1:pos:R:3 energy=116.039394158173 energy_total=54.535731657359 forces="_JSON [[-28.086281759, -42.623435185999995, 153.848942826], [23.208003282999982, -36.300739709, 26.028620908999997], [-38.03412664599999, 20.636799058, 40.636475593000014], [164.822764361, -87.529994401, -137.691373132], [17.025383919999996, -6.530110354000001, -9.238409679], [14.133510418000007, -5.966446191000003, -10.888984712000024], [-128.39367887999998, 136.580755253, -51.26073654299998], [-9.288580643, 9.917841802999988, -4.020781053000007], [-15.386994052999995, 11.815329725999987, -7.413754211999986]]" forces_total="_JSON [[-8.776903463, -148.838609263, 385.07080844], [-140.997153762, 90.039228782, -40.528267075], [106.861652103, 0.512004644, -124.028502037], [-69.014767542, -164.486082074, -73.347700269], [199.020336228, -30.326144833, 110.27100413], [65.976090013, 94.785675961, -194.742071384], [-59.909619799, 44.586306175, 179.931221192], [31.272890625, 213.991601804, -79.588847078], [-124.432524403, -100.263981197, -163.037645922]]" pbc="F F F"
O        2.69300000       2.72200000       2.66100000
H        2.76400000       2.66600000       2.69300000
H        2.63200000       2.72900000       2.73400000
O        2.51700000       2.80400000       2.83000000
H        2.43600000       2.81300000       2.78000000
H        2.49100000       2.75900000       2.91100000
O        2.87400000       2.53000000       2.74900000
H        2.85800000       2.44300000       2.78400000
H        2.92100000       2.57600000       2.81800000
9
Properties=species:S:1:pos:R:3 energy=102.99873373891701 energy_total=41.404157980821 forces="_JSON [[24.54212147700001, 5.551675135999999, -171.84170679300001], [1.8987547930000002, -15.994648109999986, -52.254359694], [5.246256836000001, 22.340670868000018, -32.333443122000006], [8.768374456999993, 138.609122294, 148.50216267000002], [-3.8197405739999795, 15.500160498, 14.546316275999999], [0.3006518239999991, 10.840849501, 9.462635242000005], [-32.38336189099999, -149.492563845, 72.329172755], [-1.3970813789999994, -11.344024228999984, 5.286833261000002], [-3.155975544999997, -16.011242108999998, 6.302389409]]" forces_total="_JSON [[105.113631897, -5.109183915, -413.534279974], [-4.736836338, 162.573683425, 72.037121516], [-68.689662453, -145.566801616, 85.067648849], [179.315590333, 69.060301029, -30.144628419], [-205.757926638, 99.011509923, -22.578505907], [31.691622012, -3.121678659, 225.234248514], [-120.06650527, -12.317009106, -124.530503574], [117.93189712, -191.390000706, -12.762176082], [-34.801810665, 26.859179629, 221.211075081]]" pbc="F F F"
O        2.68100000       2.70000000       2.72600000
H        2.68500000       2.62300000       2.66900000
H        2.71400000       2.77200000       2.67200000
O        2.67900000       2.53300000       2.50400000
H        2.76600000       2.49700000       2.51700000
H        2.66800000       2.53800000       2.40900000
O        2.74600000       2.94200000       2.56000000
H        2.69300000       3.02200000       2.56500000
H        2.75800000       2.92600000       2.46700000
9
Properties=species:S:1:pos:R:3 energy=112.708636257654 energy_total=50.986715187268 forces="_JSON [[-93.08082495000001, -146.351546292, 48.670845517000004], [-45.232183831000015, -15.560989818000001, 21.168169022], [-6.512585152999989, -55.72664328799999, -6.934958034], [-52.15478285499998, 202.748214268, 46.20941292599999], [-5.1035197460000035, 17.432305735, 3.8042316169999992], [-2.6467404369999983, 17.103736464999997, 6.1255799729999865], [178.25692195599999, -14.513688632000001, -102.92372368199999], [14.387081792000004, -2.8623623109999983, -8.237776517], [12.086633217000006, -2.2690261319999934, -7.881780818999999]]" forces_total="_JSON [[-197.999315493, -339.8079507, 180.390858603], [124.322940174, -31.381439775, -112.816570093], [-71.149218615, 153.550211077, -4.670232006], [-187.466455025, -4.730508636, -19.903342422], [69.770939481, 171.596078255, -131.913704235], [57.790472506, 70.418686849, 207.956271174], [-19.809971608, -42.692463779, 58.957509304], [158.449162198, 166.243020205, -12.275100156], [66.091446375, -143.195633501, -165.725690166]]" pbc="F F F"
O        2.72200000       2.74200000       2.66800000
H        2.64700000       2.74600000       2.72800000
H        2.74800000       2.65000000       2.66900000
O        2.76900000       2.47800000       2.63000000
H        2.73500000       2.40900000       2.68700000
H        2.74100000       2.45200000       2.54200000
O        2.48500000       2.73400000       2.81000000
H        2.42200000       2.66300000       2.81400000
H        2.45900000       2.79400000       2.88000000
9
Properties=species:S:1:pos:R:3 energy=108.10754369729699 energy_total=46.551453768221 forces="_JSON [[144.456476435, -98.16345361899997, 65.238566002], [52.39867832, -16.290083165000002, 34.462273151000005], [21.118447525, -32.90205324600001, 0.4228530980000045], [-153.310499666, -8.921676769000001, -167.06872408600003], [-25.199358180000004, -6.322394020000004, -15.35910985000001], [-11.359708806000015, -2.124154606000019, -12.877513167999993], [-27.759592887999986, 132.190478606, 79.55370296], [-1.4459711889999909, 9.964600369, 6.4037191790000065], [1.10152845799999, 22.568736447, 9.22423271400001]]" forces_total="_JSON [[339.028642289, -260.135374256, 108.833354842], [-85.711892107, -24.190000478, -134.558855804], [-35.343147902, 136.969784704, 125.849193213], [81.629770966, -60.415164653, -261.822253776], [-125.322773651, -122.797569511, 140.9074483], [-146.176563968, 165.844508769, -74.390541628], [-268.313217626, 69.328754622, 23.267863895], [80.830556837, 33.348403917, 205.92734863], [159.37862517, 62.046656883, -134.013557672]]" pbc="F F F"
O        2.66700000       2.73500000       2.68800000
H        2.72900000       2.73600000       2.76100000
H        2.69400000       2.66000000       2.63500000
O        2.85700000       2.71800000       2.87600000
H        2.90300000       2.76700000       2.80800000
H        2.91600000       2.64800000       2.90000000
O        2.76700000       2.46500000       2.56300000
H        2.72800000       2.45400000       2.47600000
H        2.69500000       2.44700000       2.62400000
9
Properties=species:S:1:pos:R:3 energy=103.463238851177 energy_total=41.199448280577 forces="_JSON [[-51.63929304800001, -113.29296382799998, -128.426721133], [-29.63870104600001, -24.024787498000002, -40.57814245200001], [7.115572311999999, -26.790099371999986, -26.028461833], [148.307747029, -3.5074573150000106, 145.78485368499997], [11.573544726000009, -2.4287222069999927, 13.906834479999986], [12.50707670700001, -1.049762328, 10.265658459], [-77.28248976500001, 144.973111626, 17.16700493900001], [-16.800347707, 19.147496762999992, 6.407928916000003], [-4.1431092079999985, 6.973184156000002, 1.5010449399999999]]" forces_total="_JSON [[-178.183017846, -294.960079609, -254.823998415], [115.308235014, -57.685893375, 115.887519064], [-11.28763895, 188.538122286, -56.096846067], [48.810035593, 179.222554702, -2.638533775], [-70.071717751, -70.082382148, 202.586242493], [193.65005062, -116.126114404, -29.990362093], [108.577693952, 107.099664485, -153.077016274], [-103.615240354, -133.510331856, 135.505897603], [-103.188400278, 197.504459917, 42.647097467]]" pbc="F F F"
O        2.72700000       2.73900000       2.72700000
H        2.66200000       2.75100000       2.65700000
H        2.73300000       2.64400000       2.73800000
O        2.54200000       2.70400000       2.52100000
H        2.57600000       2.73600000       2.43700000
H        2.46300000       2.75600000       2.53600000
O        2.82600000       2.45900000       2.66000000
H        2.86600000       2.52400000       2.60200000
H        2.87100000       2.37700000       2.64000000
9
Properties=species:S:1:pos:R:3 energy=136.024541317951 energy_total=74.743779211212 forces="_JSON [[-58.300413583, -227.14156229000002, -15.291276506000003], [-18.420094775000003, -47.214745825, -5.051831130000011], [-12.341879407999997, -61.65368630799999, -11.147318354999982], [-70.98074623100001, 155.54393513499997, 205.303870147], [-17.376763312, 23.556805053000005, 25.887075191000008], [-3.943523613999993, 8.527861990000005, 11.055132146999995], [141.406561468, 119.03456986, -162.75417976499998], [28.208460228000007, 13.245621902000003, -20.578084036000007], [11.748399222000018, 16.101200487, -27.423387695999995]]" forces_total="_JSON [[-84.187061368, -477.629640858, 37.573740386], [44.043678623, 35.838448349, -197.798530293], [-48.91900502, 105.781198086, 128.734363916], [33.092429074, -79.415755148, 184.273010825], [-57.603140093, 155.767819904, -140.275938694], [-67.790322138, 111.276537422, 198.249005354], [238.671310114, -41.883857934, -336.285237029], [119.51021885, 61.259888189, 170.849852483], [-176.818108046, 129.005361994, -45.32026695]]" pbc="F F F"
O        2.70400000       2.73500000       2.68500000
H        2.67700000       2.69600000       2.76800000
H        2.71900000       2.66100000       2.62700000
O        2.71500000       2.49900000       2.53900000
H        2.73400000       2.43800000       2.61100000
H        2.74300000       2.45300000       2.46100000
O        2.57100000       2.51900000       2.79900000
H        2.53300000       2.49600000       2.71400000
H        2.65200000       2.46900000       2.80400000
9
Properties=species:S:1:pos:R:3 energy=92.519951791385 energy_total=31.090161762115 forces="_JSON [[38.197699855, -121.89215412700003, -76.78295578300003], [-12.704602619, -32.19535286499999, -14.146541875999999], [27.692188420000008, -25.072425144, -14.432064967000002], [102.36426016, 114.549191926, 21.780300058999998], [6.795999711000007, 7.833217957999999, 1.143312378000001], [11.065914962000008, 12.603653086999998, 0.5066387229999947], [-143.73942700999999, 36.764515534, 62.888861766000005], [-8.96389248700001, 1.8928539340000157, 4.010606688999999], [-20.70814099200001, 5.516499699999997, 15.031843014000003]]" forces_total="_JSON [[77.982833443, -294.198408066, -263.269507157], [99.153369667, 150.810174159, 13.992289885], [-123.950917454, -35.771698229, 143.915654646], [5.361792356, -113.112302114, 90.340288114], [220.412598351, 54.344608281, -22.509264587], [-105.548215874, 193.753756804, -44.400772367], [-159.653404866, -185.449982185, -70.181208297], [-157.949916914, 166.423449916, 6.577267901], [144.191861292, 63.200401437, 145.535251865]]" pbc="F F F"
O        2.68900000       2.73800000       2.73300000
H        2.64100000       2.65600000       2.71800000
H        2.75400000       2.74000000       2.66300000
O        2.51100000       2.49800000       2.67100000
H        2.41900000       2.47500000       2.68200000
H        2.55900000       2.41800000       2.69100000
O        2.94200000       2.65600000       2.60000000
H        3.00400000       2.58400000       2.59700000
H        2.87100000       2.62800000       2.54200000
9
Properties=species:S:1:pos:R:3 energy=126.52486720272398 energy_total=65.186026828174 forces="_JSON [[11.840955496000007, -210.391598641, -22.728006315000002], [11.622986915000002, -61.75881443899999, 0.30700794700000245], [-2.820036897999998, -37.376675783, -5.142400376000012], [-15.131762065999993, 165.684145557, -173.42951673099998], [5.253866235000004, 17.638124437000002, -17.706059045], [-8.435474537000005, 30.577641371, -44.20649402000001], [-0.8547704610000011, 82.44509207200001, 228.899792843], [-2.101058292999994, 6.613870258, 18.278454545999992], [0.6252936109999894, 6.568215162000001, 15.727221166999982]]" forces_total="_JSON [[76.241421654, -431.435237874, -136.332215203], [32.768093612, 138.391675103, -88.342184446], [-88.365609753, -16.483526091, 197.111000906], [-194.180901925, 156.937032938, -357.094679866], [222.713730478, 22.049112976, -47.631846896], [-46.846198921, 34.913765452, 169.384456966], [42.377051157, 99.561518746, -24.548960824], [-198.513659504, 21.526502945, 119.45976768], [153.806073204, -25.460844199, 167.9946617]]" pbc="F F F"
O        2.68300000       2.74200000       2.72300000
H        2.67500000       2.65400000       2.75900000
H        2.72000000       2.73000000       2.63600000
O        2.70600000       2.47700000       2.82400000
H        2.61100000       2.47500000       2.83400000
H        2.72000000       2.47500000       2.72900000
O        2.69900000       2.50700000       2.53100000
H        2.78200000       2.50100000       2.48500000
H        2.63400000       2.52100000       2.46200000
9
Properties=species:S:1:pos:R:3 energy=107.073160640872 energy_total=45.849639303194 forces="_JSON [[30.985875983, -46.547071417, -174.05398011200003], [-13.308875215, -8.746139339999985, -35.32833228300001], [32.872734290999986, -25.840991677999995, -42.288565943999984], [-171.05079965, 107.999922853, 107.359993919], [-11.746480040999998, 7.263939479000015, 5.693760157999975], [-14.254956375999996, 7.076395100999996, 7.257003259000001], [118.831691658, -37.050441155, 113.15118253], [20.39391264800001, -2.217511881000007, 12.735561851], [7.276896700000009, -1.9381019630000003, 5.473376621999989]]" forces_total="_JSON [[62.206175394, 8.228102438, -423.005382707], [107.521197059, -150.216146123, 80.84740744], [-119.177637394, 60.85384125, 90.487096929], [42.669534692, 22.018386795, -11.009264522], [-16.047486118, 136.785727661, 180.618234512], [-223.674284642, -36.463857023, -49.298212654], [-120.17436467, -131.298512004, 98.641576813], [131.525592493, 85.633708253, -153.669127276], [135.151273182, 4.458748752, 186.387671466]]" pbc="F F F"
O        2.69100000       2.68500000       2.72800000
H        2.64000000       2.74600000       2.67500000
H        2.75600000       2.64900000       2.66800000
O        2.87200000       2.56700000       2.57000000
H        2.87700000       2.51000000       2.49300000
H        2.96300000       2.58400000       2.59200000
O        2.51200000       2.74200000       2.49400000
H        2.46100000       2.70300000       2.56500000
H        2.45500000       2.73800000       2.41800000
9
Properties=species:S:1:pos:R:3 energy=113.013864995165 energy_total=50.938354553268 forces="_JSON [[142.068192746, 107.654033056, -86.36157583000002], [33.990055428, 31.40910233199999, -23.98698266599999], [26.782396905000013, 22.00678441399998, -6.192681173000004], [23.909376279, -158.787046339, 149.351394385], [3.5523379599999885, -27.799076411, 14.215196556000024], [2.451554967, -8.60836908600001, 7.8054980149999835], [-180.361748559, 30.771321433999987, -36.902511983], [-29.576394902000004, -1.666625775, -12.74380281400002], [-22.815770824000012, 5.019876377000003, -5.184534490000004]]" forces_total="_JSON [[295.773202848, 116.230855625, -292.425019827], [43.908686696, -115.836602359, 137.59910955], [-136.841244465, 160.675666536, 38.284670608], [-77.223107702, 74.192382089, 169.832181535], [79.880994225, -113.488517466, -167.272054947], [27.255382683, -155.898356459, 168.811962368], [-223.8059202, 283.994291197, -27.280775241], [86.152485024, -103.508502964, -164.175529879], [-95.100479109, -146.361216197, 136.625455833]]" pbc="F F F"
O        2.66300000       2.69600000       2.73400000
H        2.66100000       2.75900000       2.66200000
H        2.73500000       2.63700000       2.71200000
O        2.74900000       2.89700000       2.54200000
H        2.71400000       2.93800000       2.62200000
H        2.73700000       2.96300000       2.47400000
O        2.96900000       2.72800000       2.70500000
H        2.91800000       2.77600000       2.77100000
H        2.99900000       2.79600000       2.64500000
9
Properties=species:S:1:pos:R:3 energy=110.291792025052 energy_total=48.364479782685 forces="_JSON [[-97.54408031799998, -73.81001833, -141.373185799], [-48.471969817000016, -35.938361344, -22.2280001], [-1.496368191000002, -10.437559618999998, -40.335604227000005], [194.282491796, 142.896244331, 17.525268249], [15.892907126000011, 8.971399193000003, 0.20916812800000173], [12.270329449000002, 9.663411221000018, -0.07046458199999961], [-60.925493214, -34.311000515, 160.45204691200001], [-10.818016147999998, -4.544307087, 17.863250108999992], [-3.189800677000001, -2.489807851000002, 7.957521317999976]]" forces_total="_JSON [[-212.133989873, -81.571245903, -369.534307904], [125.549244718, 85.474076018, 30.763239637], [-60.927673171, -124.088769408, 134.834278141], [-23.549399735, 8.498662323, 18.855659184], [196.434824853, -48.210824955, -102.772500713], [49.560303253, 201.243217377, 101.580813323], [149.559556025, 57.827170529, 43.58031022], [-205.462398305, -48.894415123, -76.366718731], [-19.030467759, -50.277870858, 219.05922685]]" pbc="F F F"
O        2.72400000       2.69900000       2.73700000
H        2.64800000       2.64700000       2.71100000
H        2.74800000       2.74800000       2.65800000
O        2.51700000       2.54900000       2.68100000
H        2.43500000       2.57200000       2.72600000
H        2.49800000       2.46600000       2.63800000
O        2.78800000       2.74000000       2.44900000
H        2.87300000       2.76000000       2.48700000
H        2.79800000       2.76200000       2.35600000
9
Properties=species:S:1:pos:R:3 energy=112.407274517797 energy_total=50.811260164336 forces="_JSON [[153.640091524, 94.023899195, -100.886801409], [42.295071790999984, 30.994364571999995, -15.951456173000004], [12.308018972, 10.520728681999998, -11.252547214000003], [-140.77592014599998, -168.160721757, -75.83437358100001], [-13.245862853999995, -26.433618851999995, -8.727319015000006], [-8.161724504999999, -11.407421129999989, -3.694029315999984], [-42.74417399999999, 63.181567128, 180.690795901], [-2.692311262, 2.863756778999999, 10.294672441999978], [-0.6231895210000005, 4.417445385999997, 25.361058363999994]]" forces_total="_JSON [[400.71601398, 27.857968046, -98.312267793], [-127.478324376, -92.500704474, 53.086162209], [-64.994507317, 200.181728877, -82.864699212], [-178.113961755, 83.93612898, -115.260525689], [37.051710931, -121.025682779, 182.064729935], [-21.121256681, -168.912207941, -155.059926158], [-193.924955716, 62.709908756, -27.925099583], [-3.163789309, 153.205601421, 169.909855492], [151.029070242, -145.452740884, 74.361770798]]" pbc="F F F"
O        2.66000000       2.71400000       2.69700000
H        2.73500000       2.76500000       2.66800000
H        2.69700000       2.63100000       2.72800000
O        2.87300000       2.89700000       2.68900000
H        2.85100000       2.94100000       2.60700000
H        2.87800000       2.96800000       2.75300000
O        2.82300000       2.71200000       2.43600000
H        2.82100000       2.64800000       2.36500000
H        2.75600000       2.77600000       2.41200000
9
Properties=species:S:1:pos:R:3 energy=113.70701188404898 energy_total=51.81100045346 forces="_JSON [[-97.99632003299999, -121.36894317699998, -6.890734207999998], [-24.958174217000003, -40.280149802, -42.199124461], [-19.025124735000006, -14.953339042000003, 35.141138552], [53.679320094, 122.407735432, 189.68974316999999], [4.922522808000025, 6.924596961999995, 15.304706123000017], [1.1391706679999913, 9.319353677999999, 14.271405682000008], [61.943351113999995, 32.285013721, -171.017368993], [14.219380940000008, 4.680474458999996, -21.592003742000003], [6.075873360000003, 0.9852577680000252, -12.707762125000002]]" forces_total="_JSON [[-258.937216, -323.113174563, -18.405005163], [17.304704749, 83.830060206, 136.232525861], [99.652892266, 62.680682337, -131.776240814], [57.170175385, 78.561212206, -61.153733997], [141.939484506, -74.481849396, 159.442981792], [-139.368646321, 134.572323262, 120.97660718], [-175.067708083, 129.80417144, -185.73615028], [176.857551186, 82.859875976, 101.863421343], [80.448762312, -174.713301469, -121.444405922]]" pbc="F F F"
O        2.72400000       2.72500000       2.70000000
H        2.70400000       2.67000000       2.62500000
H        2.67100000       2.68900000       2.77100000
O        2.65400000       2.57600000       2.49700000
H        2.59400000       2.61100000       2.43000000
H        2.71500000       2.52100000       2.44700000
O        2.61400000       2.65500000       2.95100000
H        2.54100000       2.62300000       2.89800000
H        2.57900000       2.73100000       2.99700000
9
Properties=species:S:1:pos:R:3 energy=103.493501195783 energy_total=41.070309365907 forces="_JSON [[8.889451444000002, 23.606500048, -168.037135153], [2.29048397599999, 25.460344160999995, -23.507880559999997], [12.938572214000004, -14.594699990999999, -57.38821724500001], [-44.31730986400001, 110.472468347, 173.560368716], [-3.2348517259999987, 9.264179125000027, 10.39828559], [-17.39396957699998, 17.557915324, 21.506487594000006], [36.594190867, -141.478955853, 35.62372916699999], [1.891644871000011, -21.249849445, 5.981854834999993], [2.341787796999995, -9.037901714, 1.8625070590000234]]" forces_total="_JSON [[-84.282755559, 62.282909093, -402.791338821], [130.563652422, -140.080289207, 41.141760142], [-22.162389229, 112.269524332, 112.716345721], [119.024339693, -71.780945674, 241.995439094], [13.989409958, 220.634517519, 56.762310502], [-197.959880818, -11.559009048, -93.292607697], [99.566323059, -58.878907045, -198.645893109], [-191.206511128, 4.584449654, 99.25750085], [132.467811604, -117.472249621, 142.856483321]]" pbc="F F F"
O        2.71900000       2.69000000       2.73700000
H        2.66300000       2.76100000       2.70600000
H        2.73300000       2.63500000       2.65900000
O        2.76800000       2.56700000       2.49800000
H        2.76300000       2.47300000       2.47900000
H        2.84900000       2.57700000       2.54900000
O        2.63800000       2.96900000       2.63300000
H        2.72300000       2.95900000       2.58900000
H        2.58400000       3.01600000       2.57000000
9